# Converted from POSCAR to lammps format

12000 atoms
1 atom types

0.000000   53.393488   xlo xhi
0.000000   45.544180   ylo yhi
0.000000   64.982292   zlo zhi

 -0.000002    0.159574   -0.000026   xy xz yz

Masses

 1  12.010

Atoms

   1  1      0.228080 7.156076 5.738592
   2  1      0.267974 7.156069 21.984165
   3  1      0.307867 7.156063 38.229738
   4  1      0.347761 7.156056 54.475311
   5  1      0.228080 16.264912 5.738592
   6  1      0.267974 16.264905 21.984165
   7  1      0.307867 16.264899 38.229738
   8  1      0.347761 16.264892 54.475311
   9  1      0.228080 25.373748 5.738592
  10  1      0.267973 25.373741 21.984165
  11  1      0.307867 25.373735 38.229738
  12  1      0.347760 25.373728 54.475311
  13  1      0.228079 34.482584 5.738592
  14  1      0.267973 34.482577 21.984165
  15  1      0.307866 34.482571 38.229738
  16  1      0.347760 34.482564 54.475311
  17  1      0.228079 43.591420 5.738592
  18  1      0.267973 43.591413 21.984165
  19  1      0.307866 43.591407 38.229738
  20  1      0.347760 43.591400 54.475311
  21  1      10.906778 7.156076 5.738592
  22  1      10.946672 7.156069 21.984165
  23  1      10.986565 7.156063 38.229738
  24  1      11.026459 7.156056 54.475311
  25  1      10.906778 16.264912 5.738592
  26  1      10.946671 16.264905 21.984165
  27  1      10.986565 16.264899 38.229738
  28  1      11.026458 16.264892 54.475311
  29  1      10.906777 25.373748 5.738592
  30  1      10.946671 25.373741 21.984165
  31  1      10.986564 25.373735 38.229738
  32  1      11.026458 25.373728 54.475311
  33  1      10.906777 34.482584 5.738592
  34  1      10.946671 34.482577 21.984165
  35  1      10.986564 34.482571 38.229738
  36  1      11.026458 34.482564 54.475311
  37  1      10.906777 43.591420 5.738592
  38  1      10.946670 43.591413 21.984165
  39  1      10.986564 43.591407 38.229738
  40  1      11.026457 43.591400 54.475311
  41  1      21.585476 7.156076 5.738592
  42  1      21.625369 7.156069 21.984165
  43  1      21.665263 7.156063 38.229738
  44  1      21.705156 7.156056 54.475311
  45  1      21.585475 16.264912 5.738592
  46  1      21.625369 16.264905 21.984165
  47  1      21.665262 16.264899 38.229738
  48  1      21.705156 16.264892 54.475311
  49  1      21.585475 25.373748 5.738592
  50  1      21.625369 25.373741 21.984165
  51  1      21.665262 25.373735 38.229738
  52  1      21.705156 25.373728 54.475311
  53  1      21.585475 34.482584 5.738592
  54  1      21.625368 34.482577 21.984165
  55  1      21.665262 34.482571 38.229738
  56  1      21.705155 34.482564 54.475311
  57  1      21.585474 43.591420 5.738592
  58  1      21.625368 43.591413 21.984165
  59  1      21.665261 43.591407 38.229738
  60  1      21.705155 43.591400 54.475311
  61  1      32.264173 7.156076 5.738592
  62  1      32.304067 7.156069 21.984165
  63  1      32.343960 7.156063 38.229738
  64  1      32.383854 7.156056 54.475311
  65  1      32.264173 16.264912 5.738592
  66  1      32.304067 16.264905 21.984165
  67  1      32.343960 16.264899 38.229738
  68  1      32.383854 16.264892 54.475311
  69  1      32.264173 25.373748 5.738592
  70  1      32.304066 25.373741 21.984165
  71  1      32.343960 25.373735 38.229738
  72  1      32.383853 25.373728 54.475311
  73  1      32.264172 34.482584 5.738592
  74  1      32.304066 34.482577 21.984165
  75  1      32.343959 34.482571 38.229738
  76  1      32.383853 34.482564 54.475311
  77  1      32.264172 43.591420 5.738592
  78  1      32.304065 43.591413 21.984165
  79  1      32.343959 43.591407 38.229738
  80  1      32.383853 43.591400 54.475311
  81  1      42.942871 7.156076 5.738592
  82  1      42.982764 7.156069 21.984165
  83  1      43.022658 7.156063 38.229738
  84  1      43.062552 7.156056 54.475311
  85  1      42.942871 16.264912 5.738592
  86  1      42.982764 16.264905 21.984165
  87  1      43.022658 16.264899 38.229738
  88  1      43.062551 16.264892 54.475311
  89  1      42.942870 25.373748 5.738592
  90  1      42.982764 25.373741 21.984165
  91  1      43.022657 25.373735 38.229738
  92  1      43.062551 25.373728 54.475311
  93  1      42.942870 34.482584 5.738592
  94  1      42.982763 34.482577 21.984165
  95  1      43.022657 34.482571 38.229738
  96  1      43.062551 34.482564 54.475311
  97  1      42.942870 43.591420 5.738592
  98  1      42.982763 43.591413 21.984165
  99  1      43.022657 43.591407 38.229738
 100  1      43.062550 43.591400 54.475311
 101  1      10.490512 1.952755 10.506985
 102  1      10.530406 1.952749 26.752558
 103  1      10.570299 1.952743 42.998131
 104  1      10.610193 1.952736 59.243704
 105  1      10.490512 11.061591 10.506985
 106  1      10.530406 11.061585 26.752558
 107  1      10.570299 11.061579 42.998131
 108  1      10.610193 11.061572 59.243704
 109  1      10.490512 20.170427 10.506985
 110  1      10.530405 20.170421 26.752558
 111  1      10.570299 20.170415 42.998131
 112  1      10.610192 20.170408 59.243704
 113  1      10.490511 29.279263 10.506985
 114  1      10.530405 29.279257 26.752558
 115  1      10.570298 29.279251 42.998131
 116  1      10.610192 29.279244 59.243704
 117  1      10.490511 38.388099 10.506985
 118  1      10.530405 38.388093 26.752558
 119  1      10.570298 38.388087 42.998131
 120  1      10.610192 38.388080 59.243704
 121  1      21.169210 1.952755 10.506985
 122  1      21.209104 1.952749 26.752558
 123  1      21.248997 1.952743 42.998131
 124  1      21.288891 1.952736 59.243704
 125  1      21.169210 11.061591 10.506985
 126  1      21.209103 11.061585 26.752558
 127  1      21.248997 11.061579 42.998131
 128  1      21.288890 11.061572 59.243704
 129  1      21.169209 20.170427 10.506985
 130  1      21.209103 20.170421 26.752558
 131  1      21.248996 20.170415 42.998131
 132  1      21.288890 20.170408 59.243704
 133  1      21.169209 29.279263 10.506985
 134  1      21.209103 29.279257 26.752558
 135  1      21.248996 29.279251 42.998131
 136  1      21.288890 29.279244 59.243704
 137  1      21.169209 38.388099 10.506985
 138  1      21.209102 38.388093 26.752558
 139  1      21.248996 38.388087 42.998131
 140  1      21.288889 38.388080 59.243704
 141  1      31.847908 1.952755 10.506985
 142  1      31.887801 1.952749 26.752558
 143  1      31.927695 1.952743 42.998131
 144  1      31.967588 1.952736 59.243704
 145  1      31.847907 11.061591 10.506985
 146  1      31.887801 11.061585 26.752558
 147  1      31.927694 11.061579 42.998131
 148  1      31.967588 11.061572 59.243704
 149  1      31.847907 20.170427 10.506985
 150  1      31.887801 20.170421 26.752558
 151  1      31.927694 20.170415 42.998131
 152  1      31.967588 20.170408 59.243704
 153  1      31.847907 29.279263 10.506985
 154  1      31.887800 29.279257 26.752558
 155  1      31.927694 29.279251 42.998131
 156  1      31.967587 29.279244 59.243704
 157  1      31.847906 38.388099 10.506985
 158  1      31.887800 38.388093 26.752558
 159  1      31.927693 38.388087 42.998131
 160  1      31.967587 38.388080 59.243704
 161  1      42.526605 1.952755 10.506985
 162  1      42.566499 1.952749 26.752558
 163  1      42.606392 1.952743 42.998131
 164  1      42.646286 1.952736 59.243704
 165  1      42.526605 11.061591 10.506985
 166  1      42.566499 11.061585 26.752558
 167  1      42.606392 11.061579 42.998131
 168  1      42.646286 11.061572 59.243704
 169  1      42.526605 20.170427 10.506985
 170  1      42.566498 20.170421 26.752558
 171  1      42.606392 20.170415 42.998131
 172  1      42.646285 20.170408 59.243704
 173  1      42.526604 29.279263 10.506985
 174  1      42.566498 29.279257 26.752558
 175  1      42.606391 29.279251 42.998131
 176  1      42.646285 29.279244 59.243704
 177  1      42.526604 38.388099 10.506985
 178  1      42.566498 38.388093 26.752558
 179  1      42.606391 38.388087 42.998131
 180  1      42.646285 38.388080 59.243704
 181  1      53.205303 1.952755 10.506985
 182  1      53.245197 1.952749 26.752558
 183  1      53.285090 1.952743 42.998131
 184  1      53.324984 1.952736 59.243704
 185  1      53.205303 11.061591 10.506985
 186  1      53.245196 11.061585 26.752558
 187  1      53.285090 11.061579 42.998131
 188  1      53.324983 11.061572 59.243704
 189  1      53.205302 20.170427 10.506985
 190  1      53.245196 20.170421 26.752558
 191  1      53.285089 20.170415 42.998131
 192  1      53.324983 20.170408 59.243704
 193  1      53.205302 29.279263 10.506985
 194  1      53.245196 29.279257 26.752558
 195  1      53.285089 29.279251 42.998131
 196  1      53.324983 29.279244 59.243704
 197  1      53.205302 38.388099 10.506985
 198  1      53.245195 38.388093 26.752558
 199  1      53.285089 38.388087 42.998131
 200  1      53.324982 38.388080 59.243704
 201  1      10.490509 7.156072 10.506984
 202  1      10.530403 7.156066 26.752557
 203  1      10.570296 7.156059 42.998130
 204  1      10.610190 7.156053 59.243703
 205  1      10.490509 16.264908 10.506984
 206  1      10.530402 16.264902 26.752557
 207  1      10.570296 16.264895 42.998130
 208  1      10.610189 16.264889 59.243703
 209  1      10.490508 25.373744 10.506984
 210  1      10.530402 25.373738 26.752557
 211  1      10.570295 25.373731 42.998130
 212  1      10.610189 25.373725 59.243703
 213  1      10.490508 34.482580 10.506984
 214  1      10.530402 34.482574 26.752557
 215  1      10.570295 34.482567 42.998130
 216  1      10.610189 34.482561 59.243703
 217  1      10.490508 43.591416 10.506984
 218  1      10.530401 43.591410 26.752557
 219  1      10.570295 43.591403 42.998130
 220  1      10.610188 43.591397 59.243703
 221  1      21.169207 7.156072 10.506984
 222  1      21.209100 7.156066 26.752557
 223  1      21.248994 7.156059 42.998130
 224  1      21.288887 7.156053 59.243703
 225  1      21.169206 16.264908 10.506984
 226  1      21.209100 16.264902 26.752557
 227  1      21.248993 16.264895 42.998130
 228  1      21.288887 16.264889 59.243703
 229  1      21.169206 25.373744 10.506984
 230  1      21.209100 25.373738 26.752557
 231  1      21.248993 25.373731 42.998130
 232  1      21.288887 25.373725 59.243703
 233  1      21.169206 34.482580 10.506984
 234  1      21.209099 34.482574 26.752557
 235  1      21.248993 34.482567 42.998130
 236  1      21.288886 34.482561 59.243703
 237  1      21.169205 43.591416 10.506984
 238  1      21.209099 43.591410 26.752557
 239  1      21.248992 43.591403 42.998130
 240  1      21.288886 43.591397 59.243703
 241  1      31.847904 7.156072 10.506984
 242  1      31.887798 7.156066 26.752557
 243  1      31.927691 7.156059 42.998130
 244  1      31.967585 7.156053 59.243703
 245  1      31.847904 16.264908 10.506984
 246  1      31.887798 16.264902 26.752557
 247  1      31.927691 16.264895 42.998130
 248  1      31.967585 16.264889 59.243703
 249  1      31.847904 25.373744 10.506984
 250  1      31.887797 25.373738 26.752557
 251  1      31.927691 25.373731 42.998130
 252  1      31.967584 25.373725 59.243703
 253  1      31.847903 34.482580 10.506984
 254  1      31.887797 34.482574 26.752557
 255  1      31.927690 34.482567 42.998130
 256  1      31.967584 34.482561 59.243703
 257  1      31.847903 43.591416 10.506984
 258  1      31.887797 43.591410 26.752557
 259  1      31.927690 43.591403 42.998130
 260  1      31.967584 43.591397 59.243703
 261  1      42.526602 7.156072 10.506984
 262  1      42.566496 7.156066 26.752557
 263  1      42.606389 7.156059 42.998130
 264  1      42.646283 7.156053 59.243703
 265  1      42.526602 16.264908 10.506984
 266  1      42.566495 16.264902 26.752557
 267  1      42.606389 16.264895 42.998130
 268  1      42.646282 16.264889 59.243703
 269  1      42.526601 25.373744 10.506984
 270  1      42.566495 25.373738 26.752557
 271  1      42.606388 25.373731 42.998130
 272  1      42.646282 25.373725 59.243703
 273  1      42.526601 34.482580 10.506984
 274  1      42.566495 34.482574 26.752557
 275  1      42.606388 34.482567 42.998130
 276  1      42.646282 34.482561 59.243703
 277  1      42.526601 43.591416 10.506984
 278  1      42.566494 43.591410 26.752557
 279  1      42.606388 43.591403 42.998130
 280  1      42.646281 43.591397 59.243703
 281  1      53.205300 7.156072 10.506984
 282  1      53.245193 7.156066 26.752557
 283  1      53.285087 7.156059 42.998130
 284  1      53.324980 7.156053 59.243703
 285  1      53.205299 16.264908 10.506984
 286  1      53.245193 16.264902 26.752557
 287  1      53.285086 16.264895 42.998130
 288  1      53.324980 16.264889 59.243703
 289  1      53.205299 25.373744 10.506984
 290  1      53.245193 25.373738 26.752557
 291  1      53.285086 25.373731 42.998130
 292  1      53.324980 25.373725 59.243703
 293  1      53.205299 34.482580 10.506984
 294  1      53.245192 34.482574 26.752557
 295  1      53.285086 34.482567 42.998130
 296  1      53.324979 34.482561 59.243703
 297  1      53.205298 43.591416 10.506984
 298  1      53.245192 43.591410 26.752557
 299  1      53.285085 43.591403 42.998130
 300  1      53.324979 43.591397 59.243703
 301  1      0.228079 1.952754 5.738590
 302  1      0.267972 1.952747 21.984163
 303  1      0.307866 1.952741 38.229736
 304  1      0.347760 1.952734 54.475309
 305  1      0.228079 11.061590 5.738590
 306  1      0.267972 11.061583 21.984163
 307  1      0.307866 11.061577 38.229736
 308  1      0.347759 11.061570 54.475309
 309  1      0.228078 20.170426 5.738590
 310  1      0.267972 20.170419 21.984163
 311  1      0.307865 20.170413 38.229736
 312  1      0.347759 20.170406 54.475309
 313  1      0.228078 29.279262 5.738590
 314  1      0.267971 29.279255 21.984163
 315  1      0.307865 29.279249 38.229736
 316  1      0.347759 29.279242 54.475309
 317  1      0.228078 38.388098 5.738590
 318  1      0.267971 38.388091 21.984163
 319  1      0.307865 38.388085 38.229736
 320  1      0.347758 38.388078 54.475309
 321  1      10.906777 1.952754 5.738590
 322  1      10.946670 1.952747 21.984163
 323  1      10.986564 1.952741 38.229736
 324  1      11.026457 1.952734 54.475309
 325  1      10.906776 11.061590 5.738590
 326  1      10.946670 11.061583 21.984163
 327  1      10.986563 11.061577 38.229736
 328  1      11.026457 11.061570 54.475309
 329  1      10.906776 20.170426 5.738590
 330  1      10.946669 20.170419 21.984163
 331  1      10.986563 20.170413 38.229736
 332  1      11.026457 20.170406 54.475309
 333  1      10.906776 29.279262 5.738590
 334  1      10.946669 29.279255 21.984163
 335  1      10.986563 29.279249 38.229736
 336  1      11.026456 29.279242 54.475309
 337  1      10.906775 38.388098 5.738590
 338  1      10.946669 38.388091 21.984163
 339  1      10.986562 38.388085 38.229736
 340  1      11.026456 38.388078 54.475309
 341  1      21.585474 1.952754 5.738590
 342  1      21.625368 1.952747 21.984163
 343  1      21.665261 1.952741 38.229736
 344  1      21.705155 1.952734 54.475309
 345  1      21.585474 11.061590 5.738590
 346  1      21.625367 11.061583 21.984163
 347  1      21.665261 11.061577 38.229736
 348  1      21.705155 11.061570 54.475309
 349  1      21.585474 20.170426 5.738590
 350  1      21.625367 20.170419 21.984163
 351  1      21.665261 20.170413 38.229736
 352  1      21.705154 20.170406 54.475309
 353  1      21.585473 29.279262 5.738590
 354  1      21.625367 29.279255 21.984163
 355  1      21.665260 29.279249 38.229736
 356  1      21.705154 29.279242 54.475309
 357  1      21.585473 38.388098 5.738590
 358  1      21.625366 38.388091 21.984163
 359  1      21.665260 38.388085 38.229736
 360  1      21.705153 38.388078 54.475309
 361  1      32.264172 1.952754 5.738590
 362  1      32.304065 1.952747 21.984163
 363  1      32.343959 1.952741 38.229736
 364  1      32.383853 1.952734 54.475309
 365  1      32.264172 11.061590 5.738590
 366  1      32.304065 11.061583 21.984163
 367  1      32.343959 11.061577 38.229736
 368  1      32.383852 11.061570 54.475309
 369  1      32.264171 20.170426 5.738590
 370  1      32.304065 20.170419 21.984163
 371  1      32.343958 20.170413 38.229736
 372  1      32.383852 20.170406 54.475309
 373  1      32.264171 29.279262 5.738590
 374  1      32.304064 29.279255 21.984163
 375  1      32.343958 29.279249 38.229736
 376  1      32.383851 29.279242 54.475309
 377  1      32.264171 38.388098 5.738590
 378  1      32.304064 38.388091 21.984163
 379  1      32.343958 38.388085 38.229736
 380  1      32.383851 38.388078 54.475309
 381  1      42.942870 1.952754 5.738590
 382  1      42.982763 1.952747 21.984163
 383  1      43.022657 1.952741 38.229736
 384  1      43.062550 1.952734 54.475309
 385  1      42.942869 11.061590 5.738590
 386  1      42.982763 11.061583 21.984163
 387  1      43.022656 11.061577 38.229736
 388  1      43.062550 11.061570 54.475309
 389  1      42.942869 20.170426 5.738590
 390  1      42.982762 20.170419 21.984163
 391  1      43.022656 20.170413 38.229736
 392  1      43.062549 20.170406 54.475309
 393  1      42.942869 29.279262 5.738590
 394  1      42.982762 29.279255 21.984163
 395  1      43.022656 29.279249 38.229736
 396  1      43.062549 29.279242 54.475309
 397  1      42.942868 38.388098 5.738590
 398  1      42.982762 38.388091 21.984163
 399  1      43.022655 38.388085 38.229736
 400  1      43.062549 38.388078 54.475309
 401  1      5.587370 2.601652 13.861375
 402  1      5.627264 2.601646 30.106948
 403  1      5.667158 2.601639 46.352521
 404  1      5.707051 2.601633 62.598094
 405  1      5.587370 11.710488 13.861375
 406  1      5.627264 11.710482 30.106948
 407  1      5.667157 11.710475 46.352521
 408  1      5.707051 11.710469 62.598094
 409  1      5.587370 20.819324 13.861375
 410  1      5.627263 20.819318 30.106948
 411  1      5.667157 20.819311 46.352521
 412  1      5.707050 20.819305 62.598094
 413  1      5.587369 29.928160 13.861375
 414  1      5.627263 29.928154 30.106948
 415  1      5.667156 29.928147 46.352521
 416  1      5.707050 29.928141 62.598094
 417  1      5.587369 39.036996 13.861375
 418  1      5.627263 39.036990 30.106948
 419  1      5.667156 39.036983 46.352521
 420  1      5.707050 39.036977 62.598094
 421  1      16.266068 2.601652 13.861375
 422  1      16.305962 2.601646 30.106948
 423  1      16.345855 2.601639 46.352521
 424  1      16.385749 2.601633 62.598094
 425  1      16.266068 11.710488 13.861375
 426  1      16.305961 11.710482 30.106948
 427  1      16.345855 11.710475 46.352521
 428  1      16.385748 11.710469 62.598094
 429  1      16.266067 20.819324 13.861375
 430  1      16.305961 20.819318 30.106948
 431  1      16.345854 20.819311 46.352521
 432  1      16.385748 20.819305 62.598094
 433  1      16.266067 29.928160 13.861375
 434  1      16.305961 29.928154 30.106948
 435  1      16.345854 29.928147 46.352521
 436  1      16.385748 29.928141 62.598094
 437  1      16.266067 39.036996 13.861375
 438  1      16.305960 39.036990 30.106948
 439  1      16.345854 39.036983 46.352521
 440  1      16.385747 39.036977 62.598094
 441  1      26.944766 2.601652 13.861375
 442  1      26.984659 2.601646 30.106948
 443  1      27.024553 2.601639 46.352521
 444  1      27.064446 2.601633 62.598094
 445  1      26.944765 11.710488 13.861375
 446  1      26.984659 11.710482 30.106948
 447  1      27.024552 11.710475 46.352521
 448  1      27.064446 11.710469 62.598094
 449  1      26.944765 20.819324 13.861375
 450  1      26.984659 20.819318 30.106948
 451  1      27.024552 20.819311 46.352521
 452  1      27.064446 20.819305 62.598094
 453  1      26.944765 29.928160 13.861375
 454  1      26.984658 29.928154 30.106948
 455  1      27.024552 29.928147 46.352521
 456  1      27.064445 29.928141 62.598094
 457  1      26.944764 39.036996 13.861375
 458  1      26.984658 39.036990 30.106948
 459  1      27.024551 39.036983 46.352521
 460  1      27.064445 39.036977 62.598094
 461  1      37.623463 2.601652 13.861375
 462  1      37.663357 2.601646 30.106948
 463  1      37.703250 2.601639 46.352521
 464  1      37.743144 2.601633 62.598094
 465  1      37.623463 11.710488 13.861375
 466  1      37.663357 11.710482 30.106948
 467  1      37.703250 11.710475 46.352521
 468  1      37.743144 11.710469 62.598094
 469  1      37.623463 20.819324 13.861375
 470  1      37.663356 20.819318 30.106948
 471  1      37.703250 20.819311 46.352521
 472  1      37.743143 20.819305 62.598094
 473  1      37.623462 29.928160 13.861375
 474  1      37.663356 29.928154 30.106948
 475  1      37.703249 29.928147 46.352521
 476  1      37.743143 29.928141 62.598094
 477  1      37.623462 39.036996 13.861375
 478  1      37.663356 39.036990 30.106948
 479  1      37.703249 39.036983 46.352521
 480  1      37.743143 39.036977 62.598094
 481  1      48.302161 2.601652 13.861375
 482  1      48.342055 2.601646 30.106948
 483  1      48.381948 2.601639 46.352521
 484  1      48.421842 2.601633 62.598094
 485  1      48.302161 11.710488 13.861375
 486  1      48.342054 11.710482 30.106948
 487  1      48.381948 11.710475 46.352521
 488  1      48.421841 11.710469 62.598094
 489  1      48.302160 20.819324 13.861375
 490  1      48.342054 20.819318 30.106948
 491  1      48.381947 20.819311 46.352521
 492  1      48.421841 20.819305 62.598094
 493  1      48.302160 29.928160 13.861375
 494  1      48.342054 29.928154 30.106948
 495  1      48.381947 29.928147 46.352521
 496  1      48.421841 29.928141 62.598094
 497  1      48.302160 39.036996 13.861375
 498  1      48.342053 39.036990 30.106948
 499  1      48.381947 39.036983 46.352521
 500  1      48.421840 39.036977 62.598094
 501  1      5.131218 6.507175 2.384196
 502  1      5.171111 6.507169 18.629769
 503  1      5.211005 6.507162 34.875342
 504  1      5.250898 6.507156 51.120915
 505  1      5.131217 15.616011 2.384196
 506  1      5.171111 15.616005 18.629769
 507  1      5.211004 15.615998 34.875342
 508  1      5.250898 15.615992 51.120915
 509  1      5.131217 24.724847 2.384196
 510  1      5.171111 24.724841 18.629769
 511  1      5.211004 24.724834 34.875342
 512  1      5.250898 24.724828 51.120915
 513  1      5.131217 33.833683 2.384196
 514  1      5.171110 33.833677 18.629769
 515  1      5.211004 33.833670 34.875342
 516  1      5.250897 33.833664 51.120915
 517  1      5.131216 42.942519 2.384196
 518  1      5.171110 42.942513 18.629769
 519  1      5.211003 42.942506 34.875342
 520  1      5.250897 42.942500 51.120915
 521  1      15.809915 6.507175 2.384196
 522  1      15.849809 6.507169 18.629769
 523  1      15.889702 6.507162 34.875342
 524  1      15.929596 6.507156 51.120915
 525  1      15.809915 15.616011 2.384196
 526  1      15.849809 15.616005 18.629769
 527  1      15.889702 15.615998 34.875342
 528  1      15.929596 15.615992 51.120915
 529  1      15.809915 24.724847 2.384196
 530  1      15.849808 24.724841 18.629769
 531  1      15.889702 24.724834 34.875342
 532  1      15.929595 24.724828 51.120915
 533  1      15.809914 33.833683 2.384196
 534  1      15.849808 33.833677 18.629769
 535  1      15.889701 33.833670 34.875342
 536  1      15.929595 33.833664 51.120915
 537  1      15.809914 42.942519 2.384196
 538  1      15.849808 42.942513 18.629769
 539  1      15.889701 42.942506 34.875342
 540  1      15.929595 42.942500 51.120915
 541  1      26.488613 6.507175 2.384196
 542  1      26.528507 6.507169 18.629769
 543  1      26.568400 6.507162 34.875342
 544  1      26.608294 6.507156 51.120915
 545  1      26.488613 15.616011 2.384196
 546  1      26.528506 15.616005 18.629769
 547  1      26.568400 15.615998 34.875342
 548  1      26.608293 15.615992 51.120915
 549  1      26.488612 24.724847 2.384196
 550  1      26.528506 24.724841 18.629769
 551  1      26.568399 24.724834 34.875342
 552  1      26.608293 24.724828 51.120915
 553  1      26.488612 33.833683 2.384196
 554  1      26.528506 33.833677 18.629769
 555  1      26.568399 33.833670 34.875342
 556  1      26.608293 33.833664 51.120915
 557  1      26.488612 42.942519 2.384196
 558  1      26.528505 42.942513 18.629769
 559  1      26.568399 42.942506 34.875342
 560  1      26.608292 42.942500 51.120915
 561  1      37.167311 6.507175 2.384196
 562  1      37.207204 6.507169 18.629769
 563  1      37.247098 6.507162 34.875342
 564  1      37.286991 6.507156 51.120915
 565  1      37.167310 15.616011 2.384196
 566  1      37.207204 15.616005 18.629769
 567  1      37.247097 15.615998 34.875342
 568  1      37.286991 15.615992 51.120915
 569  1      37.167310 24.724847 2.384196
 570  1      37.207204 24.724841 18.629769
 571  1      37.247097 24.724834 34.875342
 572  1      37.286991 24.724828 51.120915
 573  1      37.167310 33.833683 2.384196
 574  1      37.207203 33.833677 18.629769
 575  1      37.247097 33.833670 34.875342
 576  1      37.286990 33.833664 51.120915
 577  1      37.167309 42.942519 2.384196
 578  1      37.207203 42.942513 18.629769
 579  1      37.247096 42.942506 34.875342
 580  1      37.286990 42.942500 51.120915
 581  1      47.846008 6.507175 2.384196
 582  1      47.885902 6.507169 18.629769
 583  1      47.925795 6.507162 34.875342
 584  1      47.965689 6.507156 51.120915
 585  1      47.846008 15.616011 2.384196
 586  1      47.885902 15.616005 18.629769
 587  1      47.925795 15.615998 34.875342
 588  1      47.965689 15.615992 51.120915
 589  1      47.846008 24.724847 2.384196
 590  1      47.885901 24.724841 18.629769
 591  1      47.925795 24.724834 34.875342
 592  1      47.965688 24.724828 51.120915
 593  1      47.846007 33.833683 2.384196
 594  1      47.885901 33.833677 18.629769
 595  1      47.925794 33.833670 34.875342
 596  1      47.965688 33.833664 51.120915
 597  1      47.846007 42.942519 2.384196
 598  1      47.885901 42.942513 18.629769
 599  1      47.925794 42.942506 34.875342
 600  1      47.965688 42.942500 51.120915
 601  1      5.131218 2.601658 2.384195
 602  1      5.171111 2.601652 18.629768
 603  1      5.211005 2.601645 34.875341
 604  1      5.250898 2.601639 51.120914
 605  1      5.131217 11.710494 2.384195
 606  1      5.171111 11.710488 18.629768
 607  1      5.211004 11.710481 34.875341
 608  1      5.250898 11.710475 51.120914
 609  1      5.131217 20.819330 2.384195
 610  1      5.171111 20.819324 18.629768
 611  1      5.211004 20.819317 34.875341
 612  1      5.250898 20.819311 51.120914
 613  1      5.131217 29.928166 2.384195
 614  1      5.171110 29.928160 18.629768
 615  1      5.211004 29.928153 34.875341
 616  1      5.250897 29.928147 51.120914
 617  1      5.131216 39.037002 2.384195
 618  1      5.171110 39.036996 18.629768
 619  1      5.211003 39.036989 34.875341
 620  1      5.250897 39.036983 51.120914
 621  1      15.809915 2.601658 2.384195
 622  1      15.849809 2.601652 18.629768
 623  1      15.889702 2.601645 34.875341
 624  1      15.929596 2.601639 51.120914
 625  1      15.809915 11.710494 2.384195
 626  1      15.849809 11.710488 18.629768
 627  1      15.889702 11.710481 34.875341
 628  1      15.929596 11.710475 51.120914
 629  1      15.809915 20.819330 2.384195
 630  1      15.849808 20.819324 18.629768
 631  1      15.889702 20.819317 34.875341
 632  1      15.929595 20.819311 51.120914
 633  1      15.809914 29.928166 2.384195
 634  1      15.849808 29.928160 18.629768
 635  1      15.889701 29.928153 34.875341
 636  1      15.929595 29.928147 51.120914
 637  1      15.809914 39.037002 2.384195
 638  1      15.849808 39.036996 18.629768
 639  1      15.889701 39.036989 34.875341
 640  1      15.929595 39.036983 51.120914
 641  1      26.488613 2.601658 2.384195
 642  1      26.528507 2.601652 18.629768
 643  1      26.568400 2.601645 34.875341
 644  1      26.608294 2.601639 51.120914
 645  1      26.488613 11.710494 2.384195
 646  1      26.528506 11.710488 18.629768
 647  1      26.568400 11.710481 34.875341
 648  1      26.608293 11.710475 51.120914
 649  1      26.488612 20.819330 2.384195
 650  1      26.528506 20.819324 18.629768
 651  1      26.568399 20.819317 34.875341
 652  1      26.608293 20.819311 51.120914
 653  1      26.488612 29.928166 2.384195
 654  1      26.528506 29.928160 18.629768
 655  1      26.568399 29.928153 34.875341
 656  1      26.608293 29.928147 51.120914
 657  1      26.488612 39.037002 2.384195
 658  1      26.528505 39.036996 18.629768
 659  1      26.568399 39.036989 34.875341
 660  1      26.608292 39.036983 51.120914
 661  1      37.167311 2.601658 2.384195
 662  1      37.207204 2.601652 18.629768
 663  1      37.247098 2.601645 34.875341
 664  1      37.286991 2.601639 51.120914
 665  1      37.167310 11.710494 2.384195
 666  1      37.207204 11.710488 18.629768
 667  1      37.247097 11.710481 34.875341
 668  1      37.286991 11.710475 51.120914
 669  1      37.167310 20.819330 2.384195
 670  1      37.207204 20.819324 18.629768
 671  1      37.247097 20.819317 34.875341
 672  1      37.286991 20.819311 51.120914
 673  1      37.167310 29.928166 2.384195
 674  1      37.207203 29.928160 18.629768
 675  1      37.247097 29.928153 34.875341
 676  1      37.286990 29.928147 51.120914
 677  1      37.167309 39.037002 2.384195
 678  1      37.207203 39.036996 18.629768
 679  1      37.247096 39.036989 34.875341
 680  1      37.286990 39.036983 51.120914
 681  1      47.846008 2.601658 2.384195
 682  1      47.885902 2.601652 18.629768
 683  1      47.925795 2.601645 34.875341
 684  1      47.965689 2.601639 51.120914
 685  1      47.846008 11.710494 2.384195
 686  1      47.885902 11.710488 18.629768
 687  1      47.925795 11.710481 34.875341
 688  1      47.965689 11.710475 51.120914
 689  1      47.846008 20.819330 2.384195
 690  1      47.885901 20.819324 18.629768
 691  1      47.925795 20.819317 34.875341
 692  1      47.965688 20.819311 51.120914
 693  1      47.846007 29.928166 2.384195
 694  1      47.885901 29.928160 18.629768
 695  1      47.925794 29.928153 34.875341
 696  1      47.965688 29.928147 51.120914
 697  1      47.846007 39.037002 2.384195
 698  1      47.885901 39.036996 18.629768
 699  1      47.925794 39.036989 34.875341
 700  1      47.965688 39.036983 51.120914